/*--------------------------------*- C++ -*----------------------------------*\
  =========                 |
  \\      /  F ield         | OpenFOAM: The Open Source CFD Toolbox
   \\    /   O peration     | Website:  https://openfoam.org
    \\  /    A nd           | Version:  9
     \\/     M anipulation  |
\*---------------------------------------------------------------------------*/
FoamFile
{
    version     2.0;
    format      ascii;
    class       volScalarField;
    location    "0";
    object      omega;
}
// * * * * * * * * * * * * * * * * * * * * * * * * * * * * * * * * * * * * * //

dimensions      [ 0 0 -1 0 0 0 0 ];

internalField   uniform 1e-3;

boundaryField
{
    stationaryWalls
    {
        type            omegaWallFunction;
        value           $internalField;
    }
    atmosphere
    {
        type            zeroGradient;
    }
    floatingObject
    {
        type            omegaWallFunction;
        value           $internalField;
    }
    front
    {
        type            empty;
    }
    back
    {
        type            empty;
    }
}


// ************************************************************************* //
